 Gaussian 09, Revision D.01,
 Gaussian 09:  ES64L-G09RevD.01 24-Apr-2013

 ----------------------------------------------------------------------
 #p m062x/6-31g* scrf=(pcm,solvent=toluene) opt=modredundant pop=none g
 eom=connect
 ----------------------------------------------------------------------

 -------------------
 Title Card Required
 -------------------
 Symbolic Z-matrix:
 Charge =  0 Multiplicity = 1

 SCF Done:  E(RM062X) =  -5065.78947035     A.U. after   16 cycles
 SCF Done:  E(RM062X) =  -5065.78638696     A.U. after   15 cycles
 SCF Done:  E(RM062X) =  -5065.80107751     A.U. after   12 cycles
 SCF Done:  E(RM062X) =  -5065.81026378     A.U. after   12 cycles
 SCF Done:  E(RM062X) =  -5065.81838210     A.U. after   14 cycles
 SCF Done:  E(RM062X) =  -5065.82189602     A.U. after   13 cycles
 SCF Done:  E(RM062X) =  -5065.82330589     A.U. after   14 cycles
 SCF Done:  E(RM062X) =  -5065.82466949     A.U. after   13 cycles
 SCF Done:  E(RM062X) =  -5065.82594966     A.U. after   13 cycles
 SCF Done:  E(RM062X) =  -5065.82618847     A.U. after   13 cycles
 SCF Done:  E(RM062X) =  -5065.83030324     A.U. after   11 cycles
 SCF Done:  E(RM062X) =  -5065.83031582     A.U. after   10 cycles
 SCF Done:  E(RM062X) =  -5065.83031708     A.U. after   10 cycles
 SCF Done:  E(RM062X) =  -5065.83032060     A.U. after    9 cycles
 SCF Done:  E(RM062X) =  -5065.83032161     A.U. after    9 cycles
 SCF Done:  E(RM062X) =  -5065.83032216     A.U. after    8 cycles
 SCF Done:  E(RM062X) =  -5065.83032220     A.U. after    8 cycles
 SCF Done:  E(RM062X) =  -5065.83032229     A.U. after    8 cycles
 SCF Done:  E(RM062X) =  -5065.83032223     A.U. after    7 cycles
 SCF Done:  E(RM062X) =  -5065.83032224     A.U. after    7 cycles
 Optimization completed.
    -- Stationary point found.

                         Standard orientation:
 ---------------------------------------------------------------------
 Center     Atomic      Atomic             Coordinates (Angstroms)
 Number     Number       Type             X           Y           Z
 ---------------------------------------------------------------------
      1         22           0        0.995367   -1.430251   -0.569086
      2          6           0        3.512144   -2.626888   -1.252812
      3          6           0        3.777068   -2.365785    0.232430
      4          8           0        2.128140   -2.512926   -1.464317
      5          7           0        2.913835   -1.243775    0.556547
      6          6           0        3.348493   -0.209171    1.169708
      7          6           0        2.534970    0.960898    1.450859
      8          6           0        1.133858    0.939649    1.246342
      9          6           0        3.148714    2.127658    1.934823
     10          6           0        0.392070    2.104176    1.525483
     11          6           0        2.411849    3.271160    2.189271
     12          6           0        1.025059    3.248536    1.979710
     13          8           0        0.512323   -0.128855    0.799979
     14         17           0        0.065149   -3.047601    1.028621
     15          8           0       -0.541888   -1.658658   -1.505380
     16          6           0       -1.860147   -1.810595   -1.128851
     17          6           0       -2.143574   -1.106166    0.180541
     18          6           0       -3.421005   -1.144218    0.867269
     19          6           0       -3.427276   -1.011590    2.362105
     20          6           0       -4.615020   -1.789411    0.226949
     21          6           0        0.901959    1.268211   -1.675629
     22          6           0       -0.761826    2.674542   -1.528002
     23          7           0       -0.402134    1.339645   -1.531053
     24         35           0       -2.993519    0.727751   -0.014601
     25          8           0       -1.891652    3.078620   -1.295135
     26          8           0        1.591379    0.191163   -1.602615
     27          6           0        0.440451    3.587153   -1.802682
     28          6           0        1.602981    2.602465   -1.876665
     29          1           0        4.394571   -0.173141    1.498143
     30          1           0        4.224594    2.123073    2.095853
     31          1           0        0.436137    4.140875    2.173290
     32          1           0       -2.083941   -2.874827   -0.944542
     33          1           0       -2.528961   -1.450083   -1.919190
     34          1           0       -1.287037   -0.900924    0.813107
     35          1           0       -2.558845   -0.458344    2.724540
     36          1           0       -3.383400   -2.026732    2.775743
     37          1           0       -4.346741   -0.536676    2.710171
     38          1           0       -4.603307   -2.848172    0.515640
     39          1           0       -4.594490   -1.726486   -0.861805
     40          1           0       -5.541120   -1.347984    0.600061
     41          1           0        0.269493    4.144532   -2.727419
     42          1           0        0.531676    4.308596   -0.986637
     43          1           0        2.337905    2.733590   -1.074784
     44          1           0        2.141544    2.604896   -2.828290
     45          1           0        3.441807   -3.228652    0.818702
     46          1           0        3.853771   -3.624130   -1.549522
     47          1           0        2.898233    4.171071    2.549250
     48          1           0       -0.677014    2.068180    1.333386
     49          1           0        4.833457   -2.165219    0.448656
     50          1           0        4.036286   -1.879534   -1.863821
 ---------------------------------------------------------------------

 Normal termination of Gaussian 09 at Thu Feb  4 02:03:27 2016.
